####################################################################### 
# 
# This file contains crystal structure data downloaded from the 
# Cambridge Structural Database (CSD) hosted by the Cambridge 
# Crystallographic Data Centre (CCDC).
# 
# Full information about CCDC data access policies and citation 
# guidelines are available at http://www.ccdc.cam.ac.uk/access/V1 
# 
# Audit and citation data items may have been added by the CCDC. 
# Please retain this information to preserve the provenance of 
# this file and to allow appropriate attribution of the data. 
# 
#######################################################################

data_2
_audit_block_doi                 10.5517/ccs4715
_database_code_depnum_ccdc_archive 'CCDC 719046'
loop_
_citation_id
_citation_doi
_citation_year
1 10.1016/j.jssc.2009.07.048 2009
_audit_update_record             
;
2009-02-03 deposited with the CCDC.	2021-11-24 downloaded from the CCDC.
;

_audit_creation_method           SHELXL-97
_chemical_name_systematic        
;
?
;
_chemical_name_common            ?
_chemical_melting_point          ?
_chemical_formula_moiety         ?
_chemical_formula_sum            'C22 N4 O12 Zn2'
_chemical_formula_weight         643.00

loop_
_atom_type_symbol
_atom_type_description
_atom_type_scat_dispersion_real
_atom_type_scat_dispersion_imag
_atom_type_scat_source
C C 0.0033 0.0016 'International Tables Vol C Tables 4.2.6.8 and 6.1.1.4'
N N 0.0061 0.0033 'International Tables Vol C Tables 4.2.6.8 and 6.1.1.4'
O O 0.0106 0.0060 'International Tables Vol C Tables 4.2.6.8 and 6.1.1.4'
Zn Zn 0.2839 1.4301 'International Tables Vol C Tables 4.2.6.8 and 6.1.1.4'

_symmetry_cell_setting           Tetragonal
_symmetry_space_group_name_H-M   P4/mmm

loop_
_symmetry_equiv_pos_as_xyz
'x, y, z'
'-x, -y, z'
'-y, x, z'
'y, -x, z'
'-x, y, -z'
'x, -y, -z'
'y, x, -z'
'-y, -x, -z'
'-x, -y, -z'
'x, y, -z'
'y, -x, -z'
'-y, x, -z'
'x, -y, z'
'-x, y, z'
'-y, -x, z'
'y, x, z'

_cell_length_a                   10.9389(15)
_cell_length_b                   10.9389(15)
_cell_length_c                   9.6807(19)
_cell_angle_alpha                90.00
_cell_angle_beta                 90.00
_cell_angle_gamma                90.00
_cell_volume                     1158.4(3)
_cell_formula_units_Z            1
_cell_measurement_temperature    298(2)
_cell_measurement_reflns_used    9952
_cell_measurement_theta_min      3.4
_cell_measurement_theta_max      27.5

_exptl_crystal_description       block
_exptl_crystal_colour            yellow
_exptl_crystal_size_max          0.40
_exptl_crystal_size_mid          0.25
_exptl_crystal_size_min          0.25
_exptl_crystal_density_meas      ?
_exptl_crystal_density_diffrn    0.922
_exptl_crystal_density_method    'not measured'
_exptl_crystal_F_000             316
_exptl_absorpt_coefficient_mu    1.074
_exptl_absorpt_correction_type   empirical
_exptl_absorpt_correction_T_min  0.6733
_exptl_absorpt_correction_T_max  0.7751
_exptl_absorpt_process_details   ?

_exptl_special_details           
;
?
;

_diffrn_ambient_temperature      298(2)
_diffrn_radiation_wavelength     0.71075
_diffrn_radiation_type           MoK\a
_diffrn_radiation_source         'fine-focus sealed tube'
_diffrn_radiation_monochromator  graphite
_diffrn_measurement_device_type  'Rigaku RAXIS-RAPID'
_diffrn_measurement_method       '\w scans'
_diffrn_detector_area_resol_mean 10.00
_diffrn_standards_number         ?
_diffrn_standards_interval_count ?
_diffrn_standards_interval_time  ?
_diffrn_standards_decay_%        ?
_diffrn_reflns_number            11418
_diffrn_reflns_av_R_equivalents  0.0321
_diffrn_reflns_av_sigmaI/netI    0.0133
_diffrn_reflns_limit_h_min       -13
_diffrn_reflns_limit_h_max       14
_diffrn_reflns_limit_k_min       -14
_diffrn_reflns_limit_k_max       14
_diffrn_reflns_limit_l_min       -12
_diffrn_reflns_limit_l_max       10
_diffrn_reflns_theta_min         3.37
_diffrn_reflns_theta_max         27.47
_reflns_number_total             829
_reflns_number_gt                778
_reflns_threshold_expression     >2sigma(I)

_computing_data_collection       PROCESS-AUTO
_computing_cell_refinement       PROCESS-AUTO
_computing_data_reduction        PROCESS-AUTO
_computing_structure_solution    'SHELXS-97 (Sheldrick, 1990)'
_computing_structure_refinement  'SHELXL-97 (Sheldrick, 1997)'
_computing_molecular_graphics    ?
_computing_publication_material  ?

_refine_special_details          
;
Refinement of F^2^ against ALL reflections. The weighted R-factor wR and
goodness of fit S are based on F^2^, conventional R-factors R are based
on F, with F set to zero for negative F^2^. The threshold expression of
F^2^ > 2sigma(F^2^) is used only for calculating R-factors(gt) etc. and is
not relevant to the choice of reflections for refinement. R-factors based
on F^2^ are statistically about twice as large as those based on F, and R-
factors based on ALL data will be even larger.
;

_refine_ls_structure_factor_coef Fsqd
_refine_ls_matrix_type           full
_refine_ls_weighting_scheme      calc
_refine_ls_weighting_details     
'calc w=1/[\s^2^(Fo^2^)+(0.0612P)^2^+0.4400P] where P=(Fo^2^+2Fc^2^)/3'
_atom_sites_solution_primary     direct
_atom_sites_solution_secondary   difmap
_atom_sites_solution_hydrogens   geom
_refine_ls_hydrogen_treatment    mixed
_refine_ls_extinction_method     none
_refine_ls_extinction_coef       ?
_refine_ls_number_reflns         829
_refine_ls_number_parameters     51
_refine_ls_number_restraints     0
_refine_ls_R_factor_all          0.0355
_refine_ls_R_factor_gt           0.0340
_refine_ls_wR_factor_ref         0.0932
_refine_ls_wR_factor_gt          0.0921
_refine_ls_goodness_of_fit_ref   1.096
_refine_ls_restrained_S_all      1.096
_refine_ls_shift/su_max          0.000
_refine_ls_shift/su_mean         0.000

loop_
_atom_site_label
_atom_site_type_symbol
_atom_site_fract_x
_atom_site_fract_y
_atom_site_fract_z
_atom_site_U_iso_or_equiv
_atom_site_adp_type
_atom_site_occupancy
_atom_site_symmetry_multiplicity
_atom_site_calc_flag
_atom_site_refinement_flags
_atom_site_disorder_assembly
_atom_site_disorder_group
N2 N 0.898(2) 0.380(2) 0.234(3) 0.096(7) Uiso 0.13 1 d P . .
Zn1 Zn 1.0000 0.0000 0.15335(4) 0.0225(2) Uani 1 8 d S . .
O1 O 1.0000 0.18264(17) 0.1148(2) 0.0550(6) Uani 1 2 d S . .
C1 C 1.0000 0.2337(3) 0.0000 0.0362(7) Uani 1 4 d S . .
N1 N 1.0000 0.0000 0.3668(4) 0.0258(8) Uani 1 8 d S . .
C2 C 1.0000 0.3719(3) 0.0000 0.0432(9) Uani 1 4 d S . .
C4 C 1.0497(7) 0.1154(5) 0.4201(4) 0.080(4) Uani 0.38 1 d P . .
C3 C 0.9631(5) 0.4370(3) 0.1147(4) 0.062(2) Uani 0.50 1 d P . .
O2 O 0.802(3) 0.329(3) 0.213(3) 0.158(9) Uiso 0.13 1 d P . .
O3 O 0.943(3) 0.391(3) 0.329(2) 0.133(9) Uiso 0.13 1 d P . .

loop_
_atom_site_aniso_label
_atom_site_aniso_U_11
_atom_site_aniso_U_22
_atom_site_aniso_U_33
_atom_site_aniso_U_23
_atom_site_aniso_U_13
_atom_site_aniso_U_12
Zn1 0.0261(2) 0.0261(2) 0.0152(3) 0.000 0.000 0.000
O1 0.1034(18) 0.0241(9) 0.0376(10) 0.0044(8) 0.000 0.000
C1 0.052(2) 0.0219(14) 0.0343(16) 0.000 0.000 0.000
N1 0.0311(11) 0.0311(11) 0.0153(14) 0.000 0.000 0.000
C2 0.077(3) 0.0238(15) 0.0286(16) 0.000 0.000 0.000
C4 0.169(11) 0.054(3) 0.0164(15) -0.0036(18) -0.001(2) -0.059(5)
C3 0.120(6) 0.0283(17) 0.0373(15) 0.0003(14) 0.026(2) -0.001(2)

_geom_special_details            
;
All esds (except the esd in the dihedral angle between two l.s. planes)
are estimated using the full covariance matrix. The cell esds are taken
into account individually in the estimation of esds in distances, angles
and torsion angles; correlations between esds in cell parameters are only
used when they are defined by crystal symmetry. An approximate (isotropic)
treatment of cell esds is used for estimating esds involving l.s. planes.
;

loop_
_geom_bond_atom_site_label_1
_geom_bond_atom_site_label_2
_geom_bond_distance
_geom_bond_site_symmetry_2
_geom_bond_publ_flag
N2 O3 1.05(3) . ?
N2 O2 1.20(3) . ?
N2 C3 1.49(3) . ?
Zn1 O1 2.0324(19) 3_645 ?
Zn1 O1 2.0324(19) . ?
Zn1 O1 2.0324(19) 2_755 ?
Zn1 O1 2.0324(19) 4_665 ?
Zn1 N1 2.067(4) . ?
Zn1 Zn1 2.9690(10) 9_755 ?
O1 C1 1.244(2) . ?
C1 O1 1.244(2) 10 ?
C1 C2 1.512(5) . ?
N1 C4 1.469(5) 16_645 ?
N1 C4 1.469(5) . ?
N1 C4 1.469(5) 2_755 ?
N1 C4 1.469(5) 14_755 ?
N1 C4 1.469(5) 3_645 ?
N1 C4 1.469(5) 15_665 ?
N1 C4 1.469(5) 4_665 ?
N1 C4 1.469(5) 13 ?
C2 C3 1.379(4) 14_755 ?
C2 C3 1.379(4) . ?
C2 C3 1.379(4) 10 ?
C2 C3 1.379(4) 5_755 ?

loop_
_geom_angle_atom_site_label_1
_geom_angle_atom_site_label_2
_geom_angle_atom_site_label_3
_geom_angle
_geom_angle_site_symmetry_1
_geom_angle_site_symmetry_3
_geom_angle_publ_flag
O3 N2 O2 128(3) . . ?
O3 N2 C3 113(3) . . ?
O2 N2 C3 119(3) . . ?
O1 Zn1 O1 88.07(2) 3_645 . ?
O1 Zn1 O1 88.07(2) 3_645 2_755 ?
O1 Zn1 O1 158.84(12) . 2_755 ?
O1 Zn1 O1 158.84(12) 3_645 4_665 ?
O1 Zn1 O1 88.07(2) . 4_665 ?
O1 Zn1 O1 88.07(2) 2_755 4_665 ?
O1 Zn1 N1 100.58(6) 3_645 . ?
O1 Zn1 N1 100.58(6) . . ?
O1 Zn1 N1 100.58(6) 2_755 . ?
O1 Zn1 N1 100.58(6) 4_665 . ?
O1 Zn1 Zn1 79.42(6) 3_645 9_755 ?
O1 Zn1 Zn1 79.42(6) . 9_755 ?
O1 Zn1 Zn1 79.42(6) 2_755 9_755 ?
O1 Zn1 Zn1 79.42(6) 4_665 9_755 ?
N1 Zn1 Zn1 180.0 . 9_755 ?
C1 O1 Zn1 127.27(19) . . ?
O1 C1 O1 126.6(3) 10 . ?
O1 C1 C2 116.70(16) 10 . ?
O1 C1 C2 116.70(16) . . ?
C4 N1 Zn1 110.56(19) 16_645 . ?
C4 N1 Zn1 110.56(19) . . ?
C4 N1 Zn1 110.56(19) 2_755 . ?
C4 N1 Zn1 110.56(19) 14_755 . ?
C4 N1 Zn1 110.56(19) 3_645 . ?
C4 N1 Zn1 110.56(19) 15_665 . ?
C4 N1 Zn1 110.56(19) 4_665 . ?
C4 N1 Zn1 110.56(19) 13 . ?
C3 C2 C3 117.9(4) 14_755 10 ?
C3 C2 C3 107.2(4) . 10 ?
C3 C2 C3 107.2(4) 14_755 5_755 ?
C3 C2 C3 117.9(4) . 5_755 ?
C3 C2 C1 121.1(2) 14_755 . ?
C3 C2 C1 121.1(2) . . ?
C3 C2 C1 121.1(2) 10 . ?
C3 C2 C1 121.1(2) 5_755 . ?
C4 C4 N1 69.7(3) 16_645 . ?
C4 C4 N1 68.3(3) 14_755 . ?
N1 C4 C4 110.56(19) . 10_556 ?
N1 C4 C4 95.9(4) . 7_646 ?
N1 C4 C4 94.3(4) . 5_756 ?
N1 C4 C4 48.54(6) . 3_645 ?
N1 C4 C4 48.54(6) . 4_665 ?
C3 C3 C2 73.0(2) 14_755 . ?
C3 C3 N2 118.6(10) 14_755 . ?
C2 C3 N2 123.0(10) . . ?
C3 C3 N2 114.8(10) 13_565 . ?
N2 C3 C3 127.1(10) . 2_765 ?
N2 O3 O3 118(2) . 14_755 ?

_diffrn_measured_fraction_theta_max 0.995
_diffrn_reflns_theta_full        27.47
_diffrn_measured_fraction_theta_full 0.995
_refine_diff_density_max         0.419
_refine_diff_density_min         -0.364
_refine_diff_density_rms         0.064

#===END



