####################################################################### 
# 
# This file contains crystal structure data downloaded from the 
# Cambridge Structural Database (CSD) hosted by the Cambridge 
# Crystallographic Data Centre (CCDC).
# 
# Full information about CCDC data access policies and citation 
# guidelines are available at http://www.ccdc.cam.ac.uk/access/V1 
# 
# Audit and citation data items may have been added by the CCDC. 
# Please retain this information to preserve the provenance of 
# this file and to allow appropriate attribution of the data. 
# 
#######################################################################

data_structure
_audit_block_doi                 10.5517/ccdc.csd.cc1kt2dv
_database_code_depnum_ccdc_archive 'CCDC 1454067'
loop_
_citation_id
_citation_doi
_citation_year
1 10.1039/C6TA01757F 2016
_audit_update_record             
;
2016-02-17 deposited with the CCDC.	2021-11-24 downloaded from the CCDC.
;
# start Validation Reply Form
_vrf_EXPT005_structure           
;
PROBLEM: _exptl_crystal_description is missing
RESPONSE: Structure refined by Rietveld methods based on powder diffraction data.
;
_vrf_ATOM007_structure           
;
PROBLEM: _atom_site_aniso_label is missing
RESPONSE: Structure refined by the Rietveld method, anisotropy meaningless.
;
_vrf_GEOM001_structure           
;
PROBLEM: _geom_bond_atom_site_label_1 is missing
RESPONSE: Geometry not given as model refined by the Rietveld method.
;
_vrf_GEOM003_structure           
;
PROBLEM: _geom_bond_distance is missing
RESPONSE: Geometry not given as model refined by the Rietveld method.
;
_vrf_GEOM006_structure           
;
PROBLEM: _geom_angle_atom_site_label_2 is missing
RESPONSE: Geometry not given as model refined by the Rietveld method.
;
_vrf_GEOM007_structure           
;
PROBLEM: _geom_angle_atom_site_label_3 is missing
RESPONSE: Geometry not given as model refined by the Rietveld method.
;
_vrf_PLAT029_structure           
;
PROBLEM: _diffrn_measured_fraction_theta_full Low .......      0.000 Note
RESPONSE: Structure refined by the Rietveld method.
;
_vrf_PLAT183_structure           
;
PROBLEM: Missing _cell_measurement_reflns_used value ....     Please Do !
RESPONSE: Structure determined from powder X-ray diffraction data, cell not determined separately.
;
_vrf_PLAT184_structure           
;
PROBLEM: Missing _cell_measurement_theta_min value ......     Please Do !
RESPONSE: Structure determined from powder X-ray diffraction data, cell not determined separately.
;
_vrf_PLAT185_structure           
;
PROBLEM: Missing _cell_measurement_theta_max value ......     Please Do !
RESPONSE: Structure determined from powder X-ray diffraction data, cell not determined separately.
;
_vrf_PLAT197_structure           
;
PROBLEM: Missing _cell_measurement_temperature Datum ....     Please Add
RESPONSE: Structure determined from powder X-ray diffraction data, cell not determined separately.
;
_vrf_PLAT601_structure           
;
PROBLEM: Structure Contains Solvent Accessible VOIDS of .        515 Ang3
RESPONSE: Structure is porous.
;
_vrf_PLAT340_structure           
;
PROBLEM: Low Bond Precision on  C-C Bonds ...............     0.0114 Ang.
RESPONSE: The structure was refined by the Rietveld method which explains the low precision of the C-C bond.
;

# Added during the CSD deposition process: Wednesday 17th of February 2016 11:13:01 AM
# end Validation Reply Form

_chemical_formula_sum            'C64 Al8 O40'
_chemical_formula_weight         1624.480
_cell_length_a                   21.5214(7)
_cell_length_b                   21.5214(7)
_cell_length_c                   10.3218(4)
_cell_angle_alpha                90.000
_cell_angle_beta                 90.000
_cell_angle_gamma                90.000
_cell_volume                     4780.7(4)
_cell_formula_units_Z            2
_symmetry_cell_setting           tetragonal
_symmetry_int_tables_number      141
_symmetry_space_group_name_H-M   'I 41/a m d'
_symmetry_space_group_name_Hall  -I_4bd_2
loop_
_symmetry_equiv_pos_as_xyz
'-x, -y, -z'
'-x, y, z'
'-x+1/2, -y, z+1/2'
'-x+1/2, y, -z+1/2'
'-y+1/4, -x+1/4, -z-1/4'
'-y+1/4, x-1/4, z+1/4'
'-y-1/4, -x+1/4, z-1/4'
'-y-1/4, x-1/4, -z+1/4'
'y+1/4, -x+1/4, z-1/4'
'y+1/4, x-1/4, -z+1/4'
'y-1/4, -x+1/4, -z-1/4'
'y-1/4, x-1/4, z+1/4'
'x, -y, -z'
'x, y, z'
'x+1/2, -y, z+1/2'
'x+1/2, y, -z+1/2'
'-x+1/2, -y+1/2, -z+1/2'
'-x+1/2, y+1/2, z+1/2'
'-x, -y+1/2, z'
'-x, y+1/2, -z'
'-y-1/4, -x-1/4, -z+1/4'
'-y-1/4, x+1/4, z-1/4'
'-y+1/4, -x-1/4, z+1/4'
'-y+1/4, x+1/4, -z-1/4'
'y-1/4, -x-1/4, z+1/4'
'y-1/4, x+1/4, -z-1/4'
'y+1/4, -x-1/4, -z+1/4'
'y+1/4, x+1/4, z-1/4'
'x+1/2, -y+1/2, -z+1/2'
'x+1/2, y+1/2, z+1/2'
'x, -y+1/2, z'
'x, y+1/2, -z'

loop_
_atom_type_symbol
_atom_type_oxidation_number
_atom_type_radius_bond
Al ? 1.200
O ? 1.200
C ? 1.200


loop_
_atom_site_label
_atom_site_type_symbol
_atom_site_fract_x
_atom_site_fract_y
_atom_site_fract_z
_atom_site_occupancy
_atom_site_symmetry_multiplicity
_atom_site_Wyckoff_symbol
_atom_site_attached_hydrogens
_atom_site_calc_flag
_atom_site_thermal_displace_type
_atom_site_u_iso_or_equiv
Al1 Al 0.3184(4) 0.0000 0.0000 1.000 16 f ? d ? ?
O1 O 0.2568(4) 0.0068(4) 0.1250 1.000 16 g ? d ? ?
O2 O 0.3828(5) 0.0094(4) 0.1248(7) 1.000 32 i ? d ? ?
O3 O 0.3368(4) 0.0675(5) 0.2769(8) 1.000 32 i ? d ? ?
C1 C 0.4435(2) 0.0746(5) 0.4182(7) 1.000 32 i ? d ? ?
C5 C 0.4439(3) 0.0534(5) 0.2895(7) 1.000 32 i ? d ? ?
C6 C 0.3836(4) 0.0386(6) 0.2296(9) 1.000 32 i ? d ? ?
C3 C 0.5000 0.0373(10) 0.2334(18) 1.000 16 h ? d ? ?
C4 C 0.5000 0.0886(9) 0.4789(17) 1.000 16 h ? d ? ?

_diffrn_ambient_temperature      298
_diffrn_measurement_device_type  'STOE Stadi P Cu Ka1'
_diffrn_radiation_wavelength     1.540598

_chemical_name_systematic        'CAU-10-H dry'
_exptl_crystal_colour            white
_refine_special_details          'Rietveld refinement from PXRD data.'
